[
  {
    "Symbol": "H",
    "Name": "Hydrogen",
    "AtomicNumber": 1,
    "AtomicWeight": 1.0079,
    "Density": 0.08988,
    "MeltingPoint": 13.99,
    "BoilingPoint": 20.271,
    "Electronegativity": 2.2,
    "Discovered": "1766"
  },
  {
    "Symbol": "He",
    "Name": "Helium",
    "AtomicNumber": 2,
    "AtomicWeight": 4.0026,
    "Density": 0.1786,
    "MeltingPoint": 0.95,
    "BoilingPoint": 4.222,
    "Electronegativity": null,
    "Discovered": "1868"
  },
  {
    "Symbol": "Li",
    "Name": "Lithium",
    "AtomicNumber": 3,
    "AtomicWeight": 6.938,
    "Density": 0.534,
    "MeltingPoint": 453.65,
    "BoilingPoint": 1603,
    "Electronegativity": 0.98,
    "Discovered": "1817"
  },
  {
    "Symbol": "Be",
    "Name": "Beryllium",
    "AtomicNumber": 4,
    "AtomicWeight": 9.01218,
    "Density": 1.85,
    "MeltingPoint": 1560,
    "BoilingPoint": 2742,
    "Electronegativity": 1.57,
    "Discovered": "1798"
  },
  {
    "Symbol": "B",
    "Name": "Boron",
    "AtomicNumber": 5,
    "AtomicWeight": 10.806,
    "Density": 2.08,
    "MeltingPoint": 2349,
    "BoilingPoint": 4200,
    "Electronegativity": 2.04,
    "Discovered": "1808"
  },
  {
    "Symbol": "C",
    "Name": "Carbon",
    "AtomicNumber": 6,
    "AtomicWeight": 12.0096,
    "Density": 1.821,
    "MeltingPoint": null,
    "BoilingPoint": null,
    "Electronegativity": 2.55,
    "Discovered": "3750 BC"
  },
  {
    "Symbol": "N",
    "Name": "Nitrogen",
    "AtomicNumber": 7,
    "AtomicWeight": 14.0064,
    "Density": 1.251,
    "MeltingPoint": 63.15,
    "BoilingPoint": 77.355,
    "Electronegativity": 3.04,
    "Discovered": "1772"
  },
  {
    "Symbol": "O",
    "Name": "Oxygen",
    "AtomicNumber": 8,
    "AtomicWeight": 15.999,
    "Density": 1.429,
    "MeltingPoint": 54.36,
    "BoilingPoint": 90.188,
    "Electronegativity": 3.44,
    "Discovered": "1771"
  },
  {
    "Symbol": "F",
    "Name": "Fluorine",
    "AtomicNumber": 9,
    "AtomicWeight": 18.9984,
    "Density": 1.696,
    "MeltingPoint": 53.48,
    "BoilingPoint": 85.03,
    "Electronegativity": 3.98,
    "Discovered": "1810"
  },
  {
    "Symbol": "Ne",
    "Name": "Neon",
    "AtomicNumber": 10,
    "AtomicWeight": 20.1797,
    "Density": 0.9002,
    "MeltingPoint": 24.56,
    "BoilingPoint": 27.104,
    "Electronegativity": null,
    "Discovered": "1898"
  },
  {
    "Symbol": "Na",
    "Name": "Sodium",
    "AtomicNumber": 11,
    "AtomicWeight": 22.9898,
    "Density": 0.968,
    "MeltingPoint": 370.944,
    "BoilingPoint": 1156.09,
    "Electronegativity": 0.93,
    "Discovered": "1807"
  },
  {
    "Symbol": "Mg",
    "Name": "Magnesium",
    "AtomicNumber": 12,
    "AtomicWeight": 24.304,
    "Density": 1.738,
    "MeltingPoint": 923,
    "BoilingPoint": 1363,
    "Electronegativity": 1.31,
    "Discovered": "1755"
  },
  {
    "Symbol": "Al",
    "Name": "Aluminium",
    "AtomicNumber": 13,
    "AtomicWeight": 26.9815,
    "Density": 2.7,
    "MeltingPoint": 933.47,
    "BoilingPoint": 2743,
    "Electronegativity": 1.61,
    "Discovered": "1825"
  },
  {
    "Symbol": "Si",
    "Name": "Silicon",
    "AtomicNumber": 14,
    "AtomicWeight": 28.084,
    "Density": 2.329,
    "MeltingPoint": 1687,
    "BoilingPoint": 3538,
    "Electronegativity": 1.9,
    "Discovered": "1823"
  },
  {
    "Symbol": "P",
    "Name": "Phosphorus",
    "AtomicNumber": 15,
    "AtomicWeight": 30.9738,
    "Density": 1.823,
    "MeltingPoint": null,
    "BoilingPoint": null,
    "Electronegativity": 2.19,
    "Discovered": "1669"
  },
  {
    "Symbol": "S",
    "Name": "Sulfur",
    "AtomicNumber": 16,
    "AtomicWeight": 32.059,
    "Density": 2.07,
    "MeltingPoint": 388.36,
    "BoilingPoint": 717.8,
    "Electronegativity": 2.58,
    "Discovered": "2000 BC"
  },
  {
    "Symbol": "Cl",
    "Name": "Chlorine",
    "AtomicNumber": 17,
    "AtomicWeight": 35.446,
    "Density": 3.2,
    "MeltingPoint": 171.6,
    "BoilingPoint": 239.11,
    "Electronegativity": 3.16,
    "Discovered": "1774"
  },
  {
    "Symbol": "Ar",
    "Name": "Argon",
    "AtomicNumber": 18,
    "AtomicWeight": 39.792,
    "Density": 1.784,
    "MeltingPoint": 83.81,
    "BoilingPoint": 87.302,
    "Electronegativity": null,
    "Discovered": "1894"
  },
  {
    "Symbol": "K",
    "Name": "Potassium",
    "AtomicNumber": 19,
    "AtomicWeight": 39.0983,
    "Density": 0.862,
    "MeltingPoint": 336.7,
    "BoilingPoint": 1032,
    "Electronegativity": 0.82,
    "Discovered": "1807"
  },
  {
    "Symbol": "Ca",
    "Name": "Calcium",
    "AtomicNumber": 20,
    "AtomicWeight": 40.0784,
    "Density": 1.55,
    "MeltingPoint": 1115,
    "BoilingPoint": 1757,
    "Electronegativity": 1,
    "Discovered": "1808"
  },
  {
    "Symbol": "Sc",
    "Name": "Scandium",
    "AtomicNumber": 21,
    "AtomicWeight": 44.9559,
    "Density": 2.985,
    "MeltingPoint": 1814,
    "BoilingPoint": 3109,
    "Electronegativity": 1.36,
    "Discovered": "1879"
  },
  {
    "Symbol": "Ti",
    "Name": "Titanium",
    "AtomicNumber": 22,
    "AtomicWeight": 47.8671,
    "Density": 4.506,
    "MeltingPoint": 1941,
    "BoilingPoint": 3560,
    "Electronegativity": 1.54,
    "Discovered": "1791"
  },
  {
    "Symbol": "V",
    "Name": "Vanadium",
    "AtomicNumber": 23,
    "AtomicWeight": 50.9415,
    "Density": 6,
    "MeltingPoint": 2183,
    "BoilingPoint": 3680,
    "Electronegativity": 1.63,
    "Discovered": "1801"
  },
  {
    "Symbol": "Cr",
    "Name": "Chromium",
    "AtomicNumber": 24,
    "AtomicWeight": 51.9962,
    "Density": 7.19,
    "MeltingPoint": 2180,
    "BoilingPoint": 2944,
    "Electronegativity": 1.66,
    "Discovered": "1794"
  },
  {
    "Symbol": "Mn",
    "Name": "Manganese",
    "AtomicNumber": 25,
    "AtomicWeight": 54.938,
    "Density": 7.21,
    "MeltingPoint": 1519,
    "BoilingPoint": 2334,
    "Electronegativity": 1.55,
    "Discovered": "1774"
  },
  {
    "Symbol": "Fe",
    "Name": "Iron",
    "AtomicNumber": 26,
    "AtomicWeight": 55.8452,
    "Density": 7.874,
    "MeltingPoint": 1811,
    "BoilingPoint": 3134,
    "Electronegativity": 1.83,
    "Discovered": "5000 BC"
  },
  {
    "Symbol": "Co",
    "Name": "Cobalt",
    "AtomicNumber": 27,
    "AtomicWeight": 58.9332,
    "Density": 8.9,
    "MeltingPoint": 1768,
    "BoilingPoint": 3200,
    "Electronegativity": 1.88,
    "Discovered": "1735"
  },
  {
    "Symbol": "Ni",
    "Name": "Nickel",
    "AtomicNumber": 28,
    "AtomicWeight": 58.6934,
    "Density": 8.908,
    "MeltingPoint": 1728,
    "BoilingPoint": 3003,
    "Electronegativity": 1.91,
    "Discovered": "1751"
  },
  {
    "Symbol": "Cu",
    "Name": "Copper",
    "AtomicNumber": 29,
    "AtomicWeight": 63.5463,
    "Density": 8.96,
    "MeltingPoint": 1357.77,
    "BoilingPoint": 2835,
    "Electronegativity": 1.9,
    "Discovered": "9000 BC"
  },
  {
    "Symbol": "Zn",
    "Name": "Zinc",
    "AtomicNumber": 30,
    "AtomicWeight": 65.382,
    "Density": 7.14,
    "MeltingPoint": 692.68,
    "BoilingPoint": 1180,
    "Electronegativity": 1.65,
    "Discovered": "1000 BC"
  },
  {
    "Symbol": "Ga",
    "Name": "Gallium",
    "AtomicNumber": 31,
    "AtomicWeight": 69.7231,
    "Density": 5.91,
    "MeltingPoint": 302.915,
    "BoilingPoint": 2673,
    "Electronegativity": 1.81,
    "Discovered": "1875"
  },
  {
    "Symbol": "Ge",
    "Name": "Germanium",
    "AtomicNumber": 32,
    "AtomicWeight": 72.6308,
    "Density": 5.323,
    "MeltingPoint": 1211.4,
    "BoilingPoint": 3106,
    "Electronegativity": 2.01,
    "Discovered": "1886"
  },
  {
    "Symbol": "As",
    "Name": "Arsenic",
    "AtomicNumber": 33,
    "AtomicWeight": 74.9216,
    "Density": 5.727,
    "MeltingPoint": null,
    "BoilingPoint": null,
    "Electronegativity": 2.18,
    "Discovered": "815"
  },
  {
    "Symbol": "Se",
    "Name": "Selenium",
    "AtomicNumber": 34,
    "AtomicWeight": 78.9718,
    "Density": 4.81,
    "MeltingPoint": 494,
    "BoilingPoint": 958,
    "Electronegativity": 2.55,
    "Discovered": "1817"
  },
  {
    "Symbol": "Br",
    "Name": "Bromine",
    "AtomicNumber": 35,
    "AtomicWeight": 79.901,
    "Density": 3.1028,
    "MeltingPoint": 265.8,
    "BoilingPoint": 332,
    "Electronegativity": 2.96,
    "Discovered": "1825"
  },
  {
    "Symbol": "Kr",
    "Name": "Krypton",
    "AtomicNumber": 36,
    "AtomicWeight": 83.7982,
    "Density": 3.749,
    "MeltingPoint": 115.78,
    "BoilingPoint": 119.93,
    "Electronegativity": 3,
    "Discovered": "1898"
  },
  {
    "Symbol": "Rb",
    "Name": "Rubidium",
    "AtomicNumber": 37,
    "AtomicWeight": 85.4678,
    "Density": 1.532,
    "MeltingPoint": 312.45,
    "BoilingPoint": 961,
    "Electronegativity": 0.82,
    "Discovered": "1861"
  },
  {
    "Symbol": "Sr",
    "Name": "Strontium",
    "AtomicNumber": 38,
    "AtomicWeight": 87.621,
    "Density": 2.64,
    "MeltingPoint": 1050,
    "BoilingPoint": 1650,
    "Electronegativity": 0.95,
    "Discovered": "1787"
  },
  {
    "Symbol": "Y",
    "Name": "Yttrium",
    "AtomicNumber": 39,
    "AtomicWeight": 88.9058,
    "Density": 4.472,
    "MeltingPoint": 1799,
    "BoilingPoint": 3203,
    "Electronegativity": 1.22,
    "Discovered": "1794"
  },
  {
    "Symbol": "Zr",
    "Name": "Zirconium",
    "AtomicNumber": 40,
    "AtomicWeight": 91.2242,
    "Density": 6.52,
    "MeltingPoint": 2128,
    "BoilingPoint": 4650,
    "Electronegativity": 1.33,
    "Discovered": "1789"
  },
  {
    "Symbol": "Nb",
    "Name": "Niobium",
    "AtomicNumber": 41,
    "AtomicWeight": 92.9064,
    "Density": 8.57,
    "MeltingPoint": 2750,
    "BoilingPoint": 5017,
    "Electronegativity": 1.6,
    "Discovered": "1801"
  },
  {
    "Symbol": "Mo",
    "Name": "Molybdenum",
    "AtomicNumber": 42,
    "AtomicWeight": 95.951,
    "Density": 10.28,
    "MeltingPoint": 2896,
    "BoilingPoint": 4912,
    "Electronegativity": 2.16,
    "Discovered": "1778"
  },
  {
    "Symbol": "Tc",
    "Name": "Technetium",
    "AtomicNumber": 43,
    "AtomicWeight": 98.9062,
    "Density": 11,
    "MeltingPoint": 2430,
    "BoilingPoint": 4538,
    "Electronegativity": 1.9,
    "Discovered": "1937"
  },
  {
    "Symbol": "Ru",
    "Name": "Ruthenium",
    "AtomicNumber": 44,
    "AtomicWeight": 101.072,
    "Density": 12.45,
    "MeltingPoint": 2607,
    "BoilingPoint": 4423,
    "Electronegativity": 2.2,
    "Discovered": "1844"
  },
  {
    "Symbol": "Rh",
    "Name": "Rhodium",
    "AtomicNumber": 45,
    "AtomicWeight": 102.906,
    "Density": 12.41,
    "MeltingPoint": 2237,
    "BoilingPoint": 3968,
    "Electronegativity": 2.28,
    "Discovered": "1804"
  },
  {
    "Symbol": "Pd",
    "Name": "Palladium",
    "AtomicNumber": 46,
    "AtomicWeight": 106.421,
    "Density": 12.023,
    "MeltingPoint": 1828.05,
    "BoilingPoint": 3236,
    "Electronegativity": 2.2,
    "Discovered": "1802"
  },
  {
    "Symbol": "Ag",
    "Name": "Silver",
    "AtomicNumber": 47,
    "AtomicWeight": 107.868,
    "Density": 10.49,
    "MeltingPoint": 1234.93,
    "BoilingPoint": 2435,
    "Electronegativity": 1.93,
    "Discovered": "5000 BC"
  },
  {
    "Symbol": "Cd",
    "Name": "Cadmium",
    "AtomicNumber": 48,
    "AtomicWeight": 112.414,
    "Density": 8.65,
    "MeltingPoint": 594.22,
    "BoilingPoint": 1040,
    "Electronegativity": 1.69,
    "Discovered": "1817"
  },
  {
    "Symbol": "In",
    "Name": "Indium",
    "AtomicNumber": 49,
    "AtomicWeight": 114.818,
    "Density": 7.31,
    "MeltingPoint": 429.749,
    "BoilingPoint": 2345,
    "Electronegativity": 1.78,
    "Discovered": "1863"
  },
  {
    "Symbol": "Sn",
    "Name": "Tin",
    "AtomicNumber": 50,
    "AtomicWeight": 118.711,
    "Density": 7.365,
    "MeltingPoint": 505.08,
    "BoilingPoint": 2875,
    "Electronegativity": 1.96,
    "Discovered": "3500 BC"
  },
  {
    "Symbol": "Sb",
    "Name": "Antimony",
    "AtomicNumber": 51,
    "AtomicWeight": 121.76,
    "Density": 6.697,
    "MeltingPoint": 903.78,
    "BoilingPoint": 1908,
    "Electronegativity": 2.05,
    "Discovered": "815"
  },
  {
    "Symbol": "Te",
    "Name": "Tellurium",
    "AtomicNumber": 52,
    "AtomicWeight": 127.603,
    "Density": 6.24,
    "MeltingPoint": 722.66,
    "BoilingPoint": 1261,
    "Electronegativity": 2.1,
    "Discovered": "1782"
  },
  {
    "Symbol": "I",
    "Name": "Iodine",
    "AtomicNumber": 53,
    "AtomicWeight": 126.904,
    "Density": 4.933,
    "MeltingPoint": 386.85,
    "BoilingPoint": 457.4,
    "Electronegativity": 2.66,
    "Discovered": "1811"
  },
  {
    "Symbol": "Xe",
    "Name": "Xenon",
    "AtomicNumber": 54,
    "AtomicWeight": 131.294,
    "Density": 5.894,
    "MeltingPoint": 161.4,
    "BoilingPoint": 165.051,
    "Electronegativity": 2.6,
    "Discovered": "1898"
  },
  {
    "Symbol": "Cs",
    "Name": "Cesium",
    "AtomicNumber": 55,
    "AtomicWeight": 132.905,
    "Density": 1.93,
    "MeltingPoint": 301.7,
    "BoilingPoint": 944,
    "Electronegativity": 0.79,
    "Discovered": "1860"
  },
  {
    "Symbol": "Ba",
    "Name": "Barium",
    "AtomicNumber": 56,
    "AtomicWeight": 137.328,
    "Density": 3.51,
    "MeltingPoint": 1000,
    "BoilingPoint": 2118,
    "Electronegativity": 0.89,
    "Discovered": "1772"
  },
  {
    "Symbol": "La",
    "Name": "Lanthanum",
    "AtomicNumber": 57,
    "AtomicWeight": 138.905,
    "Density": 6.162,
    "MeltingPoint": 1193,
    "BoilingPoint": 3737,
    "Electronegativity": 1.1,
    "Discovered": "1838"
  },
  {
    "Symbol": "Ce",
    "Name": "Cerium",
    "AtomicNumber": 58,
    "AtomicWeight": 140.116,
    "Density": 6.77,
    "MeltingPoint": 1068,
    "BoilingPoint": 3716,
    "Electronegativity": 1.12,
    "Discovered": "1803"
  },
  {
    "Symbol": "Pr",
    "Name": "Praseodymium",
    "AtomicNumber": 59,
    "AtomicWeight": 140.908,
    "Density": 6.77,
    "MeltingPoint": 1208,
    "BoilingPoint": 3403,
    "Electronegativity": 1.13,
    "Discovered": "1885"
  },
  {
    "Symbol": "Nd",
    "Name": "Neodymium",
    "AtomicNumber": 60,
    "AtomicWeight": 144.242,
    "Density": 7.01,
    "MeltingPoint": 1297,
    "BoilingPoint": 3347,
    "Electronegativity": 1.14,
    "Discovered": "1885"
  },
  {
    "Symbol": "Pm",
    "Name": "Promethium",
    "AtomicNumber": 61,
    "AtomicWeight": 145,
    "Density": 7.26,
    "MeltingPoint": 1315,
    "BoilingPoint": 3273,
    "Electronegativity": 1.13,
    "Discovered": "1942"
  },
  {
    "Symbol": "Sm",
    "Name": "Samarium",
    "AtomicNumber": 62,
    "AtomicWeight": 150.362,
    "Density": 7.52,
    "MeltingPoint": 1345,
    "BoilingPoint": 2173,
    "Electronegativity": 1.17,
    "Discovered": "1879"
  },
  {
    "Symbol": "Eu",
    "Name": "Europium",
    "AtomicNumber": 63,
    "AtomicWeight": 151.964,
    "Density": 5.264,
    "MeltingPoint": 1099,
    "BoilingPoint": 1802,
    "Electronegativity": 1.2,
    "Discovered": "1896"
  },
  {
    "Symbol": "Gd",
    "Name": "Gadolinium",
    "AtomicNumber": 64,
    "AtomicWeight": 157.253,
    "Density": 7.9,
    "MeltingPoint": 1585,
    "BoilingPoint": 3273,
    "Electronegativity": 1.2,
    "Discovered": "1880"
  },
  {
    "Symbol": "Tb",
    "Name": "Terbium",
    "AtomicNumber": 65,
    "AtomicWeight": 158.925,
    "Density": 8.23,
    "MeltingPoint": 1629,
    "BoilingPoint": 3396,
    "Electronegativity": 1.1,
    "Discovered": "1843"
  },
  {
    "Symbol": "Dy",
    "Name": "Dysprosium",
    "AtomicNumber": 66,
    "AtomicWeight": 162.5,
    "Density": 8.54,
    "MeltingPoint": 1680,
    "BoilingPoint": 2840,
    "Electronegativity": 1.22,
    "Discovered": "1886"
  },
  {
    "Symbol": "Ho",
    "Name": "Holmium",
    "AtomicNumber": 67,
    "AtomicWeight": 164.93,
    "Density": 8.79,
    "MeltingPoint": 1734,
    "BoilingPoint": 2873,
    "Electronegativity": 1.23,
    "Discovered": "1878"
  },
  {
    "Symbol": "Er",
    "Name": "Erbium",
    "AtomicNumber": 68,
    "AtomicWeight": 167.259,
    "Density": 9.066,
    "MeltingPoint": 1802,
    "BoilingPoint": 3141,
    "Electronegativity": 1.24,
    "Discovered": "1843"
  },
  {
    "Symbol": "Tm",
    "Name": "Thulium",
    "AtomicNumber": 69,
    "AtomicWeight": 168.934,
    "Density": 9.32,
    "MeltingPoint": 1818,
    "BoilingPoint": 2223,
    "Electronegativity": 1.25,
    "Discovered": "1879"
  },
  {
    "Symbol": "Yb",
    "Name": "Ytterbium",
    "AtomicNumber": 70,
    "AtomicWeight": 173.045,
    "Density": 6.9,
    "MeltingPoint": 1097,
    "BoilingPoint": 1469,
    "Electronegativity": 1.1,
    "Discovered": "1878"
  },
  {
    "Symbol": "Lu",
    "Name": "Lutetium",
    "AtomicNumber": 71,
    "AtomicWeight": 174.967,
    "Density": 9.841,
    "MeltingPoint": 1925,
    "BoilingPoint": 3675,
    "Electronegativity": 1.27,
    "Discovered": "1906"
  },
  {
    "Symbol": "Hf",
    "Name": "Hafnium",
    "AtomicNumber": 72,
    "AtomicWeight": 178.492,
    "Density": 13.31,
    "MeltingPoint": 2506,
    "BoilingPoint": 4876,
    "Electronegativity": 1.3,
    "Discovered": "1922"
  },
  {
    "Symbol": "Ta",
    "Name": "Tantalum",
    "AtomicNumber": 73,
    "AtomicWeight": 180.948,
    "Density": 16.69,
    "MeltingPoint": 3290,
    "BoilingPoint": 5731,
    "Electronegativity": 1.5,
    "Discovered": "1802"
  },
  {
    "Symbol": "W",
    "Name": "Tungsten",
    "AtomicNumber": 74,
    "AtomicWeight": 183.841,
    "Density": 19.25,
    "MeltingPoint": 3695,
    "BoilingPoint": 6203,
    "Electronegativity": 2.36,
    "Discovered": "1781"
  },
  {
    "Symbol": "Re",
    "Name": "Rhenium",
    "AtomicNumber": 75,
    "AtomicWeight": 186.207,
    "Density": 21.02,
    "MeltingPoint": 3459,
    "BoilingPoint": 5869,
    "Electronegativity": 1.9,
    "Discovered": "1908"
  },
  {
    "Symbol": "Os",
    "Name": "Osmium",
    "AtomicNumber": 76,
    "AtomicWeight": 190.233,
    "Density": 22.59,
    "MeltingPoint": 3306,
    "BoilingPoint": 5285,
    "Electronegativity": 2.2,
    "Discovered": "1803"
  },
  {
    "Symbol": "Ir",
    "Name": "Iridium",
    "AtomicNumber": 77,
    "AtomicWeight": 192.217,
    "Density": 22.56,
    "MeltingPoint": 2719,
    "BoilingPoint": 4403,
    "Electronegativity": 2.2,
    "Discovered": "1803"
  },
  {
    "Symbol": "Pt",
    "Name": "Platinum",
    "AtomicNumber": 78,
    "AtomicWeight": 195.085,
    "Density": 21.45,
    "MeltingPoint": 2041.4,
    "BoilingPoint": 4098,
    "Electronegativity": 2.28,
    "Discovered": "1735"
  },
  {
    "Symbol": "Au",
    "Name": "Gold",
    "AtomicNumber": 79,
    "AtomicWeight": 196.967,
    "Density": 19.3,
    "MeltingPoint": 1337.33,
    "BoilingPoint": 3243,
    "Electronegativity": 2.54,
    "Discovered": "6000 BC"
  },
  {
    "Symbol": "Hg",
    "Name": "Mercury",
    "AtomicNumber": 80,
    "AtomicWeight": 200.592,
    "Density": 13.534,
    "MeltingPoint": 234.321,
    "BoilingPoint": 629.88,
    "Electronegativity": 2,
    "Discovered": "1500 BC"
  },
  {
    "Symbol": "Tl",
    "Name": "Thallium",
    "AtomicNumber": 81,
    "AtomicWeight": 204.382,
    "Density": 11.85,
    "MeltingPoint": 577,
    "BoilingPoint": 1746,
    "Electronegativity": 1.62,
    "Discovered": "1861"
  },
  {
    "Symbol": "Pb",
    "Name": "Lead",
    "AtomicNumber": 82,
    "AtomicWeight": 207.21,
    "Density": 11.34,
    "MeltingPoint": 600.61,
    "BoilingPoint": 2022,
    "Electronegativity": 1.87,
    "Discovered": "7000 BC"
  },
  {
    "Symbol": "Bi",
    "Name": "Bismuth",
    "AtomicNumber": 83,
    "AtomicWeight": 208.98,
    "Density": 9.78,
    "MeltingPoint": 544.7,
    "BoilingPoint": 1837,
    "Electronegativity": 2.02,
    "Discovered": "1000"
  },
  {
    "Symbol": "Po",
    "Name": "Polonium",
    "AtomicNumber": 84,
    "AtomicWeight": 209,
    "Density": 9.196,
    "MeltingPoint": 527,
    "BoilingPoint": 1235,
    "Electronegativity": 2,
    "Discovered": "1898"
  },
  {
    "Symbol": "At",
    "Name": "Astatine",
    "AtomicNumber": 85,
    "AtomicWeight": 210,
    "Density": 6.35,
    "MeltingPoint": 575,
    "BoilingPoint": 610,
    "Electronegativity": 2.2,
    "Discovered": "1940"
  },
  {
    "Symbol": "Rn",
    "Name": "Radon",
    "AtomicNumber": 86,
    "AtomicWeight": 222,
    "Density": 9.73,
    "MeltingPoint": 202,
    "BoilingPoint": 211.5,
    "Electronegativity": 2.2,
    "Discovered": "1899"
  },
  {
    "Symbol": "Fr",
    "Name": "Francium",
    "AtomicNumber": 87,
    "AtomicWeight": 223,
    "Density": 1.87,
    "MeltingPoint": 300,
    "BoilingPoint": 950,
    "Electronegativity": 0.79,
    "Discovered": "1939"
  },
  {
    "Symbol": "Ra",
    "Name": "Radium",
    "AtomicNumber": 88,
    "AtomicWeight": 226,
    "Density": 5.5,
    "MeltingPoint": 1233,
    "BoilingPoint": 2010,
    "Electronegativity": 0.9,
    "Discovered": "1898"
  },
  {
    "Symbol": "Ac",
    "Name": "Actinium",
    "AtomicNumber": 89,
    "AtomicWeight": 227,
    "Density": 10,
    "MeltingPoint": 1500,
    "BoilingPoint": 3500,
    "Electronegativity": 1.1,
    "Discovered": "1902"
  },
  {
    "Symbol": "Th",
    "Name": "Thorium",
    "AtomicNumber": 90,
    "AtomicWeight": 232.038,
    "Density": 11.724,
    "MeltingPoint": 2023,
    "BoilingPoint": 5061,
    "Electronegativity": 1.3,
    "Discovered": "1829"
  },
  {
    "Symbol": "Pa",
    "Name": "Protactinium",
    "AtomicNumber": 91,
    "AtomicWeight": 231.036,
    "Density": 15.37,
    "MeltingPoint": 1841,
    "BoilingPoint": 4300,
    "Electronegativity": 1.5,
    "Discovered": "1913"
  },
  {
    "Symbol": "U",
    "Name": "Uranium",
    "AtomicNumber": 92,
    "AtomicWeight": 238.029,
    "Density": 19.1,
    "MeltingPoint": 1405.3,
    "BoilingPoint": 4404,
    "Electronegativity": 1.38,
    "Discovered": "1789"
  },
  {
    "Symbol": "Np",
    "Name": "Neptunium",
    "AtomicNumber": 93,
    "AtomicWeight": 237,
    "Density": 20.45,
    "MeltingPoint": 912,
    "BoilingPoint": 4447,
    "Electronegativity": 1.36,
    "Discovered": "1940"
  },
  {
    "Symbol": "Pu",
    "Name": "Plutonium",
    "AtomicNumber": 94,
    "AtomicWeight": 244,
    "Density": 19.816,
    "MeltingPoint": 912.5,
    "BoilingPoint": 3505,
    "Electronegativity": 1.28,
    "Discovered": "1940"
  },
  {
    "Symbol": "Am",
    "Name": "Americium",
    "AtomicNumber": 95,
    "AtomicWeight": 243,
    "Density": 12,
    "MeltingPoint": 1449,
    "BoilingPoint": 2880,
    "Electronegativity": 1.13,
    "Discovered": "1944"
  },
  {
    "Symbol": "Cm",
    "Name": "Curium",
    "AtomicNumber": 96,
    "AtomicWeight": 247,
    "Density": 13.51,
    "MeltingPoint": 1613,
    "BoilingPoint": 3383,
    "Electronegativity": 1.28,
    "Discovered": "1944"
  },
  {
    "Symbol": "Bk",
    "Name": "Berkelium",
    "AtomicNumber": 97,
    "AtomicWeight": 247,
    "Density": 14.78,
    "MeltingPoint": 1259,
    "BoilingPoint": 2900,
    "Electronegativity": 1.3,
    "Discovered": "1949"
  },
  {
    "Symbol": "Cf",
    "Name": "Californium",
    "AtomicNumber": 98,
    "AtomicWeight": 251,
    "Density": 15.1,
    "MeltingPoint": 1173,
    "BoilingPoint": 1743,
    "Electronegativity": 1.3,
    "Discovered": "1950"
  },
  {
    "Symbol": "Es",
    "Name": "Einsteinium",
    "AtomicNumber": 99,
    "AtomicWeight": 252,
    "Density": 8.84,
    "MeltingPoint": 1133,
    "BoilingPoint": 1269,
    "Electronegativity": 1.3,
    "Discovered": "1952"
  },
  {
    "Symbol": "Fm",
    "Name": "Fermium",
    "AtomicNumber": 100,
    "AtomicWeight": 257,
    "Density": null,
    "MeltingPoint": 1800,
    "BoilingPoint": null,
    "Electronegativity": 1.3,
    "Discovered": "1952"
  },
  {
    "Symbol": "Md",
    "Name": "Mendelevium",
    "AtomicNumber": 101,
    "AtomicWeight": 258,
    "Density": null,
    "MeltingPoint": 1100,
    "BoilingPoint": null,
    "Electronegativity": 1.3,
    "Discovered": "1955"
  },
  {
    "Symbol": "No",
    "Name": "Nobelium",
    "AtomicNumber": 102,
    "AtomicWeight": 259,
    "Density": null,
    "MeltingPoint": 1100,
    "BoilingPoint": null,
    "Electronegativity": 1.3,
    "Discovered": "1966"
  },
  {
    "Symbol": "Lr",
    "Name": "Lawrencium",
    "AtomicNumber": 103,
    "AtomicWeight": 262,
    "Density": null,
    "MeltingPoint": 1900,
    "BoilingPoint": null,
    "Electronegativity": 1.3,
    "Discovered": "1961"
  },
  {
    "Symbol": "Rf",
    "Name": "Rutherfordium",
    "AtomicNumber": 104,
    "AtomicWeight": 261,
    "Density": 23.2,
    "MeltingPoint": 2400,
    "BoilingPoint": 5800,
    "Electronegativity": null,
    "Discovered": "1969"
  },
  {
    "Symbol": "Db",
    "Name": "Dubnium",
    "AtomicNumber": 105,
    "AtomicWeight": 268,
    "Density": 29.3,
    "MeltingPoint": null,
    "BoilingPoint": null,
    "Electronegativity": null,
    "Discovered": "1970"
  },
  {
    "Symbol": "Sg",
    "Name": "Seaborgium",
    "AtomicNumber": 106,
    "AtomicWeight": 269,
    "Density": 35,
    "MeltingPoint": null,
    "BoilingPoint": null,
    "Electronegativity": null,
    "Discovered": "1974"
  },
  {
    "Symbol": "Bh",
    "Name": "Bohrium",
    "AtomicNumber": 107,
    "AtomicWeight": 270.133,
    "Density": 37.1,
    "MeltingPoint": null,
    "BoilingPoint": null,
    "Electronegativity": null,
    "Discovered": "1981"
  },
  {
    "Symbol": "Hs",
    "Name": "Hassium",
    "AtomicNumber": 108,
    "AtomicWeight": 269,
    "Density": 40.7,
    "MeltingPoint": 126,
    "BoilingPoint": null,
    "Electronegativity": null,
    "Discovered": "1984"
  },
  {
    "Symbol": "Mt",
    "Name": "Meitnerium",
    "AtomicNumber": 109,
    "AtomicWeight": 277.154,
    "Density": 37.4,
    "MeltingPoint": null,
    "BoilingPoint": null,
    "Electronegativity": null,
    "Discovered": "1982"
  },
  {
    "Symbol": "Ds",
    "Name": "Darmstadtium",
    "AtomicNumber": 110,
    "AtomicWeight": 281,
    "Density": 34.8,
    "MeltingPoint": null,
    "BoilingPoint": null,
    "Electronegativity": null,
    "Discovered": "1994"
  },
  {
    "Symbol": "Rg",
    "Name": "Roentgenium",
    "AtomicNumber": 111,
    "AtomicWeight": 281,
    "Density": 28.7,
    "MeltingPoint": null,
    "BoilingPoint": null,
    "Electronegativity": null,
    "Discovered": "1994"
  },
  {
    "Symbol": "Cn",
    "Name": "Copernicium",
    "AtomicNumber": 112,
    "AtomicWeight": 285,
    "Density": 23.7,
    "MeltingPoint": null,
    "BoilingPoint": 3570,
    "Electronegativity": null,
    "Discovered": "1996"
  },
  {
    "Symbol": "Nh",
    "Name": "Nihonium",
    "AtomicNumber": 113,
    "AtomicWeight": 286,
    "Density": 16,
    "MeltingPoint": 700,
    "BoilingPoint": 1430,
    "Electronegativity": null,
    "Discovered": "2003"
  },
  {
    "Symbol": "Fl",
    "Name": "Flerovium",
    "AtomicNumber": 114,
    "AtomicWeight": 289,
    "Density": 14,
    "MeltingPoint": 340,
    "BoilingPoint": 420,
    "Electronegativity": null,
    "Discovered": "1999"
  },
  {
    "Symbol": "Mc",
    "Name": "Moscovium",
    "AtomicNumber": 115,
    "AtomicWeight": 288,
    "Density": 13.5,
    "MeltingPoint": 670,
    "BoilingPoint": 1400,
    "Electronegativity": null,
    "Discovered": "2003"
  },
  {
    "Symbol": "Lv",
    "Name": "Livermorium",
    "AtomicNumber": 116,
    "AtomicWeight": 293,
    "Density": 12.9,
    "MeltingPoint": 709,
    "BoilingPoint": 1085,
    "Electronegativity": null,
    "Discovered": "2000"
  },
  {
    "Symbol": "Ts",
    "Name": "Tennessine",
    "AtomicNumber": 117,
    "AtomicWeight": 294,
    "Density": 7.17,
    "MeltingPoint": 723,
    "BoilingPoint": 883,
    "Electronegativity": null,
    "Discovered": "2009"
  },
  {
    "Symbol": "Og",
    "Name": "Oganesson",
    "AtomicNumber": 118,
    "AtomicWeight": 294,
    "Density": 4.95,
    "MeltingPoint": null,
    "BoilingPoint": 350,
    "Electronegativity": null,
    "Discovered": "2002"
  }
]